+ 1 0 2 cbr 210 ------- 0 0.0 3.0 0 0
- 1 0 2 cbr 210 ------- 0 0.0 3.0 0 0
+ 1.00375 0 2 cbr 210 ------- 0 0.0 3.0 1 1
- 1.00375 0 2 cbr 210 ------- 0 0.0 3.0 1 1
r 1.005017 0 2 cbr 210 ------- 0 0.0 3.0 0 0
+ 1.005017 2 3 cbr 210 ------- 0 0.0 3.0 0 0
- 1.005017 2 3 cbr 210 ------- 0 0.0 3.0 0 0
+ 1.0075 0 2 cbr 210 ------- 0 0.0 3.0 2 2
- 1.0075 0 2 cbr 210 ------- 0 0.0 3.0 2 2
r 1.008767 0 2 cbr 210 ------- 0 0.0 3.0 1 1
+ 1.008767 2 3 cbr 210 ------- 0 0.0 3.0 1 1
- 1.008767 2 3 cbr 210 ------- 0 0.0 3.0 1 1
+ 1.01125 0 2 cbr 210 ------- 0 0.0 3.0 3 3
- 1.01125 0 2 cbr 210 ------- 0 0.0 3.0 3 3
r 1.012517 0 2 cbr 210 ------- 0 0.0 3.0 2 2
+ 1.012517 2 3 cbr 210 ------- 0 0.0 3.0 2 2
- 1.012517 2 3 cbr 210 ------- 0 0.0 3.0 2 2
+ 1.015 0 2 cbr 210 ------- 0 0.0 3.0 4 4
- 1.015 0 2 cbr 210 ------- 0 0.0 3.0 4 4
r 1.015048 2 3 cbr 210 ------- 0 0.0 3.0 0 0
r 1.016267 0 2 cbr 210 ------- 0 0.0 3.0 3 3
+ 1.016267 2 3 cbr 210 ------- 0 0.0 3.0 3 3
- 1.016267 2 3 cbr 210 ------- 0 0.0 3.0 3 3
+ 1.01875 0 2 cbr 210 ------- 0 0.0 3.0 5 5
- 1.01875 0 2 cbr 210 ------- 0 0.0 3.0 5 5
r 1.018798 2 3 cbr 210 ------- 0 0.0 3.0 1 1
r 1.020017 0 2 cbr 210 ------- 0 0.0 3.0 4 4
+ 1.020017 2 3 cbr 210 ------- 0 0.0 3.0 4 4
- 1.020017 2 3 cbr 210 ------- 0 0.0 3.0 4 4
+ 1.0225 0 2 cbr 210 ------- 0 0.0 3.0 6 6
- 1.0225 0 2 cbr 210 ------- 0 0.0 3.0 6 6
r 1.022548 2 3 cbr 210 ------- 0 0.0 3.0 2 2
r 1.023767 0 2 cbr 210 ------- 0 0.0 3.0 5 5
+ 1.023767 2 3 cbr 210 ------- 0 0.0 3.0 5 5
- 1.023767 2 3 cbr 210 ------- 0 0.0 3.0 5 5
+ 1.02625 0 2 cbr 210 ------- 0 0.0 3.0 7 7
- 1.02625 0 2 cbr 210 ------- 0 0.0 3.0 7 7
r 1.026298 2 3 cbr 210 ------- 0 0.0 3.0 3 3
r 1.027517 0 2 cbr 210 ------- 0 0.0 3.0 6 6
+ 1.027517 2 3 cbr 210 ------- 0 0.0 3.0 6 6
- 1.027517 2 3 cbr 210 ------- 0 0.0 3.0 6 6
+ 1.03 0 2 cbr 210 ------- 0 0.0 3.0 8 8
- 1.03 0 2 cbr 210 ------- 0 0.0 3.0 8 8
r 1.030048 2 3 cbr 210 ------- 0 0.0 3.0 4 4
r 1.031267 0 2 cbr 210 ------- 0 0.0 3.0 7 7
+ 1.031267 2 3 cbr 210 ------- 0 0.0 3.0 7 7
- 1.031267 2 3 cbr 210 ------- 0 0.0 3.0 7 7
+ 1.03375 0 2 cbr 210 ------- 0 0.0 3.0 9 9
- 1.03375 0 2 cbr 210 ------- 0 0.0 3.0 9 9
r 1.033798 2 3 cbr 210 ------- 0 0.0 3.0 5 5
r 1.035017 0 2 cbr 210 ------- 0 0.0 3.0 8 8
+ 1.035017 2 3 cbr 210 ------- 0 0.0 3.0 8 8
- 1.035017 2 3 cbr 210 ------- 0 0.0 3.0 8 8
+ 1.0375 0 2 cbr 210 ------- 0 0.0 3.0 10 10
- 1.0375 0 2 cbr 210 ------- 0 0.0 3.0 10 10
r 1.037548 2 3 cbr 210 ------- 0 0.0 3.0 6 6
r 1.038767 0 2 cbr 210 ------- 0 0.0 3.0 9 9
+ 1.038767 2 3 cbr 210 ------- 0 0.0 3.0 9 9
- 1.038767 2 3 cbr 210 ------- 0 0.0 3.0 9 9
+ 1.04125 0 2 cbr 210 ------- 0 0.0 3.0 11 11
- 1.04125 0 2 cbr 210 ------- 0 0.0 3.0 11 11
r 1.041298 2 3 cbr 210 ------- 0 0.0 3.0 7 7
r 1.042517 0 2 cbr 210 ------- 0 0.0 3.0 10 10
+ 1.042517 2 3 cbr 210 ------- 0 0.0 3.0 10 10
- 1.042517 2 3 cbr 210 ------- 0 0.0 3.0 10 10
+ 1.045 0 2 cbr 210 ------- 0 0.0 3.0 12 12
- 1.045 0 2 cbr 210 ------- 0 0.0 3.0 12 12
r 1.045048 2 3 cbr 210 ------- 0 0.0 3.0 8 8
r 1.046267 0 2 cbr 210 ------- 0 0.0 3.0 11 11
+ 1.046267 2 3 cbr 210 ------- 0 0.0 3.0 11 11
- 1.046267 2 3 cbr 210 ------- 0 0.0 3.0 11 11
+ 1.04875 0 2 cbr 210 ------- 0 0.0 3.0 13 13
- 1.04875 0 2 cbr 210 ------- 0 0.0 3.0 13 13
r 1.048798 2 3 cbr 210 ------- 0 0.0 3.0 9 9
r 1.050017 0 2 cbr 210 ------- 0 0.0 3.0 12 12
+ 1.050017 2 3 cbr 210 ------- 0 0.0 3.0 12 12
- 1.050017 2 3 cbr 210 ------- 0 0.0 3.0 12 12
+ 1.0525 0 2 cbr 210 ------- 0 0.0 3.0 14 14
- 1.0525 0 2 cbr 210 ------- 0 0.0 3.0 14 14
r 1.052548 2 3 cbr 210 ------- 0 0.0 3.0 10 10
r 1.053767 0 2 cbr 210 ------- 0 0.0 3.0 13 13
+ 1.053767 2 3 cbr 210 ------- 0 0.0 3.0 13 13
- 1.053767 2 3 cbr 210 ------- 0 0.0 3.0 13 13
+ 1.05625 0 2 cbr 210 ------- 0 0.0 3.0 15 15
- 1.05625 0 2 cbr 210 ------- 0 0.0 3.0 15 15
r 1.056298 2 3 cbr 210 ------- 0 0.0 3.0 11 11
r 1.057517 0 2 cbr 210 ------- 0 0.0 3.0 14 14
+ 1.057517 2 3 cbr 210 ------- 0 0.0 3.0 14 14
- 1.057517 2 3 cbr 210 ------- 0 0.0 3.0 14 14
+ 1.06 0 2 cbr 210 ------- 0 0.0 3.0 16 16
- 1.06 0 2 cbr 210 ------- 0 0.0 3.0 16 16
r 1.060048 2 3 cbr 210 ------- 0 0.0 3.0 12 12
r 1.061267 0 2 cbr 210 ------- 0 0.0 3.0 15 15
+ 1.061267 2 3 cbr 210 ------- 0 0.0 3.0 15 15
- 1.061267 2 3 cbr 210 ------- 0 0.0 3.0 15 15
+ 1.06375 0 2 cbr 210 ------- 0 0.0 3.0 17 17
- 1.06375 0 2 cbr 210 ------- 0 0.0 3.0 17 17
r 1.063798 2 3 cbr 210 ------- 0 0.0 3.0 13 13
r 1.065017 0 2 cbr 210 ------- 0 0.0 3.0 16 16
+ 1.065017 2 3 cbr 210 ------- 0 0.0 3.0 16 16
- 1.065017 2 3 cbr 210 ------- 0 0.0 3.0 16 16
+ 1.0675 0 2 cbr 210 ------- 0 0.0 3.0 18 18
- 1.0675 0 2 cbr 210 ------- 0 0.0 3.0 18 18
r 1.067548 2 3 cbr 210 ------- 0 0.0 3.0 14 14
r 1.068767 0 2 cbr 210 ------- 0 0.0 3.0 17 17
+ 1.068767 2 3 cbr 210 ------- 0 0.0 3.0 17 17
- 1.068767 2 3 cbr 210 ------- 0 0.0 3.0 17 17
+ 1.07125 0 2 cbr 210 ------- 0 0.0 3.0 19 19
- 1.07125 0 2 cbr 210 ------- 0 0.0 3.0 19 19
r 1.071298 2 3 cbr 210 ------- 0 0.0 3.0 15 15
r 1.072517 0 2 cbr 210 ------- 0 0.0 3.0 18 18
+ 1.072517 2 3 cbr 210 ------- 0 0.0 3.0 18 18
- 1.072517 2 3 cbr 210 ------- 0 0.0 3.0 18 18
+ 1.075 0 2 cbr 210 ------- 0 0.0 3.0 20 20
- 1.075 0 2 cbr 210 ------- 0 0.0 3.0 20 20
r 1.075048 2 3 cbr 210 ------- 0 0.0 3.0 16 16
r 1.076267 0 2 cbr 210 ------- 0 0.0 3.0 19 19
+ 1.076267 2 3 cbr 210 ------- 0 0.0 3.0 19 19
- 1.076267 2 3 cbr 210 ------- 0 0.0 3.0 19 19
+ 1.07875 0 2 cbr 210 ------- 0 0.0 3.0 21 21
- 1.07875 0 2 cbr 210 ------- 0 0.0 3.0 21 21
r 1.078798 2 3 cbr 210 ------- 0 0.0 3.0 17 17
r 1.080017 0 2 cbr 210 ------- 0 0.0 3.0 20 20
+ 1.080017 2 3 cbr 210 ------- 0 0.0 3.0 20 20
- 1.080017 2 3 cbr 210 ------- 0 0.0 3.0 20 20
+ 1.0825 0 2 cbr 210 ------- 0 0.0 3.0 22 22
- 1.0825 0 2 cbr 210 ------- 0 0.0 3.0 22 22
r 1.082548 2 3 cbr 210 ------- 0 0.0 3.0 18 18
r 1.083767 0 2 cbr 210 ------- 0 0.0 3.0 21 21
+ 1.083767 2 3 cbr 210 ------- 0 0.0 3.0 21 21
- 1.083767 2 3 cbr 210 ------- 0 0.0 3.0 21 21
+ 1.08625 0 2 cbr 210 ------- 0 0.0 3.0 23 23
- 1.08625 0 2 cbr 210 ------- 0 0.0 3.0 23 23
r 1.086298 2 3 cbr 210 ------- 0 0.0 3.0 19 19
r 1.087517 0 2 cbr 210 ------- 0 0.0 3.0 22 22
+ 1.087517 2 3 cbr 210 ------- 0 0.0 3.0 22 22
- 1.087517 2 3 cbr 210 ------- 0 0.0 3.0 22 22
+ 1.09 0 2 cbr 210 ------- 0 0.0 3.0 24 24
- 1.09 0 2 cbr 210 ------- 0 0.0 3.0 24 24
r 1.090048 2 3 cbr 210 ------- 0 0.0 3.0 20 20
r 1.091267 0 2 cbr 210 ------- 0 0.0 3.0 23 23
+ 1.091267 2 3 cbr 210 ------- 0 0.0 3.0 23 23
- 1.091267 2 3 cbr 210 ------- 0 0.0 3.0 23 23
+ 1.09375 0 2 cbr 210 ------- 0 0.0 3.0 25 25
- 1.09375 0 2 cbr 210 ------- 0 0.0 3.0 25 25
r 1.093798 2 3 cbr 210 ------- 0 0.0 3.0 21 21
r 1.095017 0 2 cbr 210 ------- 0 0.0 3.0 24 24
+ 1.095017 2 3 cbr 210 ------- 0 0.0 3.0 24 24
- 1.095017 2 3 cbr 210 ------- 0 0.0 3.0 24 24
+ 1.0975 0 2 cbr 210 ------- 0 0.0 3.0 26 26
- 1.0975 0 2 cbr 210 ------- 0 0.0 3.0 26 26
r 1.097548 2 3 cbr 210 ------- 0 0.0 3.0 22 22
r 1.098767 0 2 cbr 210 ------- 0 0.0 3.0 25 25
+ 1.098767 2 3 cbr 210 ------- 0 0.0 3.0 25 25
- 1.098767 2 3 cbr 210 ------- 0 0.0 3.0 25 25
+ 1.10125 0 2 cbr 210 ------- 0 0.0 3.0 27 27
- 1.10125 0 2 cbr 210 ------- 0 0.0 3.0 27 27
r 1.101298 2 3 cbr 210 ------- 0 0.0 3.0 23 23
r 1.102517 0 2 cbr 210 ------- 0 0.0 3.0 26 26
+ 1.102517 2 3 cbr 210 ------- 0 0.0 3.0 26 26
- 1.102517 2 3 cbr 210 ------- 0 0.0 3.0 26 26
+ 1.105 0 2 cbr 210 ------- 0 0.0 3.0 28 28
- 1.105 0 2 cbr 210 ------- 0 0.0 3.0 28 28
r 1.105048 2 3 cbr 210 ------- 0 0.0 3.0 24 24
r 1.106267 0 2 cbr 210 ------- 0 0.0 3.0 27 27
+ 1.106267 2 3 cbr 210 ------- 0 0.0 3.0 27 27
- 1.106267 2 3 cbr 210 ------- 0 0.0 3.0 27 27
+ 1.10875 0 2 cbr 210 ------- 0 0.0 3.0 29 29
- 1.10875 0 2 cbr 210 ------- 0 0.0 3.0 29 29
r 1.108798 2 3 cbr 210 ------- 0 0.0 3.0 25 25
r 1.110017 0 2 cbr 210 ------- 0 0.0 3.0 28 28
+ 1.110017 2 3 cbr 210 ------- 0 0.0 3.0 28 28
- 1.110017 2 3 cbr 210 ------- 0 0.0 3.0 28 28
+ 1.1125 0 2 cbr 210 ------- 0 0.0 3.0 30 30
- 1.1125 0 2 cbr 210 ------- 0 0.0 3.0 30 30
r 1.112548 2 3 cbr 210 ------- 0 0.0 3.0 26 26
r 1.113767 0 2 cbr 210 ------- 0 0.0 3.0 29 29
+ 1.113767 2 3 cbr 210 ------- 0 0.0 3.0 29 29
- 1.113767 2 3 cbr 210 ------- 0 0.0 3.0 29 29
+ 1.11625 0 2 cbr 210 ------- 0 0.0 3.0 31 31
- 1.11625 0 2 cbr 210 ------- 0 0.0 3.0 31 31
r 1.116298 2 3 cbr 210 ------- 0 0.0 3.0 27 27
r 1.117517 0 2 cbr 210 ------- 0 0.0 3.0 30 30
+ 1.117517 2 3 cbr 210 ------- 0 0.0 3.0 30 30
- 1.117517 2 3 cbr 210 ------- 0 0.0 3.0 30 30
+ 1.12 0 2 cbr 210 ------- 0 0.0 3.0 32 32
- 1.12 0 2 cbr 210 ------- 0 0.0 3.0 32 32
r 1.120048 2 3 cbr 210 ------- 0 0.0 3.0 28 28
r 1.121267 0 2 cbr 210 ------- 0 0.0 3.0 31 31
+ 1.121267 2 3 cbr 210 ------- 0 0.0 3.0 31 31
- 1.121267 2 3 cbr 210 ------- 0 0.0 3.0 31 31
+ 1.12375 0 2 cbr 210 ------- 0 0.0 3.0 33 33
- 1.12375 0 2 cbr 210 ------- 0 0.0 3.0 33 33
r 1.123798 2 3 cbr 210 ------- 0 0.0 3.0 29 29
r 1.125017 0 2 cbr 210 ------- 0 0.0 3.0 32 32
+ 1.125017 2 3 cbr 210 ------- 0 0.0 3.0 32 32
- 1.125017 2 3 cbr 210 ------- 0 0.0 3.0 32 32
+ 1.1275 0 2 cbr 210 ------- 0 0.0 3.0 34 34
- 1.1275 0 2 cbr 210 ------- 0 0.0 3.0 34 34
r 1.127548 2 3 cbr 210 ------- 0 0.0 3.0 30 30
r 1.128767 0 2 cbr 210 ------- 0 0.0 3.0 33 33
+ 1.128767 2 3 cbr 210 ------- 0 0.0 3.0 33 33
- 1.128767 2 3 cbr 210 ------- 0 0.0 3.0 33 33
+ 1.13125 0 2 cbr 210 ------- 0 0.0 3.0 35 35
- 1.13125 0 2 cbr 210 ------- 0 0.0 3.0 35 35
r 1.131298 2 3 cbr 210 ------- 0 0.0 3.0 31 31
r 1.132517 0 2 cbr 210 ------- 0 0.0 3.0 34 34
+ 1.132517 2 3 cbr 210 ------- 0 0.0 3.0 34 34
- 1.132517 2 3 cbr 210 ------- 0 0.0 3.0 34 34
+ 1.135 0 2 cbr 210 ------- 0 0.0 3.0 36 36
- 1.135 0 2 cbr 210 ------- 0 0.0 3.0 36 36
r 1.135048 2 3 cbr 210 ------- 0 0.0 3.0 32 32
r 1.136267 0 2 cbr 210 ------- 0 0.0 3.0 35 35
+ 1.136267 2 3 cbr 210 ------- 0 0.0 3.0 35 35
- 1.136267 2 3 cbr 210 ------- 0 0.0 3.0 35 35
+ 1.13875 0 2 cbr 210 ------- 0 0.0 3.0 37 37
- 1.13875 0 2 cbr 210 ------- 0 0.0 3.0 37 37
r 1.138798 2 3 cbr 210 ------- 0 0.0 3.0 33 33
r 1.140017 0 2 cbr 210 ------- 0 0.0 3.0 36 36
+ 1.140017 2 3 cbr 210 ------- 0 0.0 3.0 36 36
- 1.140017 2 3 cbr 210 ------- 0 0.0 3.0 36 36
+ 1.1425 0 2 cbr 210 ------- 0 0.0 3.0 38 38
- 1.1425 0 2 cbr 210 ------- 0 0.0 3.0 38 38
r 1.142548 2 3 cbr 210 ------- 0 0.0 3.0 34 34
r 1.143767 0 2 cbr 210 ------- 0 0.0 3.0 37 37
+ 1.143767 2 3 cbr 210 ------- 0 0.0 3.0 37 37
- 1.143767 2 3 cbr 210 ------- 0 0.0 3.0 37 37
+ 1.14625 0 2 cbr 210 ------- 0 0.0 3.0 39 39
- 1.14625 0 2 cbr 210 ------- 0 0.0 3.0 39 39
r 1.146298 2 3 cbr 210 ------- 0 0.0 3.0 35 35
r 1.147517 0 2 cbr 210 ------- 0 0.0 3.0 38 38
+ 1.147517 2 3 cbr 210 ------- 0 0.0 3.0 38 38
- 1.147517 2 3 cbr 210 ------- 0 0.0 3.0 38 38
+ 1.15 0 2 cbr 210 ------- 0 0.0 3.0 40 40
- 1.15 0 2 cbr 210 ------- 0 0.0 3.0 40 40
r 1.150048 2 3 cbr 210 ------- 0 0.0 3.0 36 36
r 1.151267 0 2 cbr 210 ------- 0 0.0 3.0 39 39
+ 1.151267 2 3 cbr 210 ------- 0 0.0 3.0 39 39
- 1.151267 2 3 cbr 210 ------- 0 0.0 3.0 39 39
+ 1.15375 0 2 cbr 210 ------- 0 0.0 3.0 41 41
- 1.15375 0 2 cbr 210 ------- 0 0.0 3.0 41 41
r 1.153798 2 3 cbr 210 ------- 0 0.0 3.0 37 37
r 1.155017 0 2 cbr 210 ------- 0 0.0 3.0 40 40
+ 1.155017 2 3 cbr 210 ------- 0 0.0 3.0 40 40
- 1.155017 2 3 cbr 210 ------- 0 0.0 3.0 40 40
+ 1.1575 0 2 cbr 210 ------- 0 0.0 3.0 42 42
- 1.1575 0 2 cbr 210 ------- 0 0.0 3.0 42 42
r 1.157548 2 3 cbr 210 ------- 0 0.0 3.0 38 38
r 1.158767 0 2 cbr 210 ------- 0 0.0 3.0 41 41
+ 1.158767 2 3 cbr 210 ------- 0 0.0 3.0 41 41
- 1.158767 2 3 cbr 210 ------- 0 0.0 3.0 41 41
+ 1.16125 0 2 cbr 210 ------- 0 0.0 3.0 43 43
- 1.16125 0 2 cbr 210 ------- 0 0.0 3.0 43 43
r 1.161298 2 3 cbr 210 ------- 0 0.0 3.0 39 39
r 1.162517 0 2 cbr 210 ------- 0 0.0 3.0 42 42
+ 1.162517 2 3 cbr 210 ------- 0 0.0 3.0 42 42
- 1.162517 2 3 cbr 210 ------- 0 0.0 3.0 42 42
+ 1.165 0 2 cbr 210 ------- 0 0.0 3.0 44 44
- 1.165 0 2 cbr 210 ------- 0 0.0 3.0 44 44
r 1.165048 2 3 cbr 210 ------- 0 0.0 3.0 40 40
r 1.166267 0 2 cbr 210 ------- 0 0.0 3.0 43 43
+ 1.166267 2 3 cbr 210 ------- 0 0.0 3.0 43 43
- 1.166267 2 3 cbr 210 ------- 0 0.0 3.0 43 43
+ 1.16875 0 2 cbr 210 ------- 0 0.0 3.0 45 45
- 1.16875 0 2 cbr 210 ------- 0 0.0 3.0 45 45
r 1.168798 2 3 cbr 210 ------- 0 0.0 3.0 41 41
r 1.170017 0 2 cbr 210 ------- 0 0.0 3.0 44 44
+ 1.170017 2 3 cbr 210 ------- 0 0.0 3.0 44 44
- 1.170017 2 3 cbr 210 ------- 0 0.0 3.0 44 44
+ 1.1725 0 2 cbr 210 ------- 0 0.0 3.0 46 46
- 1.1725 0 2 cbr 210 ------- 0 0.0 3.0 46 46
r 1.172548 2 3 cbr 210 ------- 0 0.0 3.0 42 42
r 1.173767 0 2 cbr 210 ------- 0 0.0 3.0 45 45
+ 1.173767 2 3 cbr 210 ------- 0 0.0 3.0 45 45
- 1.173767 2 3 cbr 210 ------- 0 0.0 3.0 45 45
+ 1.17625 0 2 cbr 210 ------- 0 0.0 3.0 47 47
- 1.17625 0 2 cbr 210 ------- 0 0.0 3.0 47 47
r 1.176298 2 3 cbr 210 ------- 0 0.0 3.0 43 43
r 1.177517 0 2 cbr 210 ------- 0 0.0 3.0 46 46
+ 1.177517 2 3 cbr 210 ------- 0 0.0 3.0 46 46
- 1.177517 2 3 cbr 210 ------- 0 0.0 3.0 46 46
+ 1.18 0 2 cbr 210 ------- 0 0.0 3.0 48 48
- 1.18 0 2 cbr 210 ------- 0 0.0 3.0 48 48
r 1.180048 2 3 cbr 210 ------- 0 0.0 3.0 44 44
r 1.181267 0 2 cbr 210 ------- 0 0.0 3.0 47 47
+ 1.181267 2 3 cbr 210 ------- 0 0.0 3.0 47 47
- 1.181267 2 3 cbr 210 ------- 0 0.0 3.0 47 47
+ 1.18375 0 2 cbr 210 ------- 0 0.0 3.0 49 49
- 1.18375 0 2 cbr 210 ------- 0 0.0 3.0 49 49
r 1.183798 2 3 cbr 210 ------- 0 0.0 3.0 45 45
r 1.185017 0 2 cbr 210 ------- 0 0.0 3.0 48 48
+ 1.185017 2 3 cbr 210 ------- 0 0.0 3.0 48 48
- 1.185017 2 3 cbr 210 ------- 0 0.0 3.0 48 48
+ 1.1875 0 2 cbr 210 ------- 0 0.0 3.0 50 50
- 1.1875 0 2 cbr 210 ------- 0 0.0 3.0 50 50
r 1.187548 2 3 cbr 210 ------- 0 0.0 3.0 46 46
r 1.188767 0 2 cbr 210 ------- 0 0.0 3.0 49 49
+ 1.188767 2 3 cbr 210 ------- 0 0.0 3.0 49 49
- 1.188767 2 3 cbr 210 ------- 0 0.0 3.0 49 49
+ 1.19125 0 2 cbr 210 ------- 0 0.0 3.0 51 51
- 1.19125 0 2 cbr 210 ------- 0 0.0 3.0 51 51
r 1.191298 2 3 cbr 210 ------- 0 0.0 3.0 47 47
r 1.192517 0 2 cbr 210 ------- 0 0.0 3.0 50 50
+ 1.192517 2 3 cbr 210 ------- 0 0.0 3.0 50 50
- 1.192517 2 3 cbr 210 ------- 0 0.0 3.0 50 50
+ 1.195 0 2 cbr 210 ------- 0 0.0 3.0 52 52
- 1.195 0 2 cbr 210 ------- 0 0.0 3.0 52 52
r 1.195048 2 3 cbr 210 ------- 0 0.0 3.0 48 48
r 1.196267 0 2 cbr 210 ------- 0 0.0 3.0 51 51
+ 1.196267 2 3 cbr 210 ------- 0 0.0 3.0 51 51
- 1.196267 2 3 cbr 210 ------- 0 0.0 3.0 51 51
+ 1.19875 0 2 cbr 210 ------- 0 0.0 3.0 53 53
- 1.19875 0 2 cbr 210 ------- 0 0.0 3.0 53 53
r 1.198798 2 3 cbr 210 ------- 0 0.0 3.0 49 49
r 1.200017 0 2 cbr 210 ------- 0 0.0 3.0 52 52
+ 1.200017 2 3 cbr 210 ------- 0 0.0 3.0 52 52
- 1.200017 2 3 cbr 210 ------- 0 0.0 3.0 52 52
+ 1.2025 0 2 cbr 210 ------- 0 0.0 3.0 54 54
- 1.2025 0 2 cbr 210 ------- 0 0.0 3.0 54 54
r 1.202548 2 3 cbr 210 ------- 0 0.0 3.0 50 50
r 1.203767 0 2 cbr 210 ------- 0 0.0 3.0 53 53
+ 1.203767 2 3 cbr 210 ------- 0 0.0 3.0 53 53
- 1.203767 2 3 cbr 210 ------- 0 0.0 3.0 53 53
+ 1.20625 0 2 cbr 210 ------- 0 0.0 3.0 55 55
- 1.20625 0 2 cbr 210 ------- 0 0.0 3.0 55 55
r 1.206298 2 3 cbr 210 ------- 0 0.0 3.0 51 51
r 1.207517 0 2 cbr 210 ------- 0 0.0 3.0 54 54
+ 1.207517 2 3 cbr 210 ------- 0 0.0 3.0 54 54
- 1.207517 2 3 cbr 210 ------- 0 0.0 3.0 54 54
+ 1.21 0 2 cbr 210 ------- 0 0.0 3.0 56 56
- 1.21 0 2 cbr 210 ------- 0 0.0 3.0 56 56
r 1.210048 2 3 cbr 210 ------- 0 0.0 3.0 52 52
r 1.211267 0 2 cbr 210 ------- 0 0.0 3.0 55 55
+ 1.211267 2 3 cbr 210 ------- 0 0.0 3.0 55 55
- 1.211267 2 3 cbr 210 ------- 0 0.0 3.0 55 55
+ 1.21375 0 2 cbr 210 ------- 0 0.0 3.0 57 57
- 1.21375 0 2 cbr 210 ------- 0 0.0 3.0 57 57
r 1.213798 2 3 cbr 210 ------- 0 0.0 3.0 53 53
r 1.215017 0 2 cbr 210 ------- 0 0.0 3.0 56 56
+ 1.215017 2 3 cbr 210 ------- 0 0.0 3.0 56 56
- 1.215017 2 3 cbr 210 ------- 0 0.0 3.0 56 56
+ 1.2175 0 2 cbr 210 ------- 0 0.0 3.0 58 58
- 1.2175 0 2 cbr 210 ------- 0 0.0 3.0 58 58
r 1.217548 2 3 cbr 210 ------- 0 0.0 3.0 54 54
r 1.218767 0 2 cbr 210 ------- 0 0.0 3.0 57 57
+ 1.218767 2 3 cbr 210 ------- 0 0.0 3.0 57 57
- 1.218767 2 3 cbr 210 ------- 0 0.0 3.0 57 57
+ 1.22125 0 2 cbr 210 ------- 0 0.0 3.0 59 59
- 1.22125 0 2 cbr 210 ------- 0 0.0 3.0 59 59
r 1.221298 2 3 cbr 210 ------- 0 0.0 3.0 55 55
r 1.222517 0 2 cbr 210 ------- 0 0.0 3.0 58 58
+ 1.222517 2 3 cbr 210 ------- 0 0.0 3.0 58 58
- 1.222517 2 3 cbr 210 ------- 0 0.0 3.0 58 58
+ 1.225 0 2 cbr 210 ------- 0 0.0 3.0 60 60
- 1.225 0 2 cbr 210 ------- 0 0.0 3.0 60 60
r 1.225048 2 3 cbr 210 ------- 0 0.0 3.0 56 56
r 1.226267 0 2 cbr 210 ------- 0 0.0 3.0 59 59
+ 1.226267 2 3 cbr 210 ------- 0 0.0 3.0 59 59
- 1.226267 2 3 cbr 210 ------- 0 0.0 3.0 59 59
+ 1.22875 0 2 cbr 210 ------- 0 0.0 3.0 61 61
- 1.22875 0 2 cbr 210 ------- 0 0.0 3.0 61 61
r 1.228798 2 3 cbr 210 ------- 0 0.0 3.0 57 57
r 1.230017 0 2 cbr 210 ------- 0 0.0 3.0 60 60
+ 1.230017 2 3 cbr 210 ------- 0 0.0 3.0 60 60
- 1.230017 2 3 cbr 210 ------- 0 0.0 3.0 60 60
+ 1.2325 0 2 cbr 210 ------- 0 0.0 3.0 62 62
- 1.2325 0 2 cbr 210 ------- 0 0.0 3.0 62 62
r 1.232548 2 3 cbr 210 ------- 0 0.0 3.0 58 58
r 1.233767 0 2 cbr 210 ------- 0 0.0 3.0 61 61
+ 1.233767 2 3 cbr 210 ------- 0 0.0 3.0 61 61
- 1.233767 2 3 cbr 210 ------- 0 0.0 3.0 61 61
+ 1.23625 0 2 cbr 210 ------- 0 0.0 3.0 63 63
- 1.23625 0 2 cbr 210 ------- 0 0.0 3.0 63 63
r 1.236298 2 3 cbr 210 ------- 0 0.0 3.0 59 59
r 1.237517 0 2 cbr 210 ------- 0 0.0 3.0 62 62
+ 1.237517 2 3 cbr 210 ------- 0 0.0 3.0 62 62
- 1.237517 2 3 cbr 210 ------- 0 0.0 3.0 62 62
+ 1.24 0 2 cbr 210 ------- 0 0.0 3.0 64 64
- 1.24 0 2 cbr 210 ------- 0 0.0 3.0 64 64
r 1.240048 2 3 cbr 210 ------- 0 0.0 3.0 60 60
r 1.241267 0 2 cbr 210 ------- 0 0.0 3.0 63 63
+ 1.241267 2 3 cbr 210 ------- 0 0.0 3.0 63 63
- 1.241267 2 3 cbr 210 ------- 0 0.0 3.0 63 63
+ 1.24375 0 2 cbr 210 ------- 0 0.0 3.0 65 65
- 1.24375 0 2 cbr 210 ------- 0 0.0 3.0 65 65
r 1.243798 2 3 cbr 210 ------- 0 0.0 3.0 61 61
r 1.245017 0 2 cbr 210 ------- 0 0.0 3.0 64 64
+ 1.245017 2 3 cbr 210 ------- 0 0.0 3.0 64 64
- 1.245017 2 3 cbr 210 ------- 0 0.0 3.0 64 64
+ 1.2475 0 2 cbr 210 ------- 0 0.0 3.0 66 66
- 1.2475 0 2 cbr 210 ------- 0 0.0 3.0 66 66
r 1.247548 2 3 cbr 210 ------- 0 0.0 3.0 62 62
r 1.248767 0 2 cbr 210 ------- 0 0.0 3.0 65 65
+ 1.248767 2 3 cbr 210 ------- 0 0.0 3.0 65 65
- 1.248767 2 3 cbr 210 ------- 0 0.0 3.0 65 65
+ 1.25125 0 2 cbr 210 ------- 0 0.0 3.0 67 67
- 1.25125 0 2 cbr 210 ------- 0 0.0 3.0 67 67
r 1.251298 2 3 cbr 210 ------- 0 0.0 3.0 63 63
r 1.252517 0 2 cbr 210 ------- 0 0.0 3.0 66 66
+ 1.252517 2 3 cbr 210 ------- 0 0.0 3.0 66 66
- 1.252517 2 3 cbr 210 ------- 0 0.0 3.0 66 66
+ 1.255 0 2 cbr 210 ------- 0 0.0 3.0 68 68
- 1.255 0 2 cbr 210 ------- 0 0.0 3.0 68 68
r 1.255048 2 3 cbr 210 ------- 0 0.0 3.0 64 64
r 1.256267 0 2 cbr 210 ------- 0 0.0 3.0 67 67
+ 1.256267 2 3 cbr 210 ------- 0 0.0 3.0 67 67
- 1.256267 2 3 cbr 210 ------- 0 0.0 3.0 67 67
+ 1.25875 0 2 cbr 210 ------- 0 0.0 3.0 69 69
- 1.25875 0 2 cbr 210 ------- 0 0.0 3.0 69 69
r 1.258798 2 3 cbr 210 ------- 0 0.0 3.0 65 65
r 1.260017 0 2 cbr 210 ------- 0 0.0 3.0 68 68
+ 1.260017 2 3 cbr 210 ------- 0 0.0 3.0 68 68
- 1.260017 2 3 cbr 210 ------- 0 0.0 3.0 68 68
+ 1.2625 0 2 cbr 210 ------- 0 0.0 3.0 70 70
- 1.2625 0 2 cbr 210 ------- 0 0.0 3.0 70 70
r 1.262548 2 3 cbr 210 ------- 0 0.0 3.0 66 66
r 1.263767 0 2 cbr 210 ------- 0 0.0 3.0 69 69
+ 1.263767 2 3 cbr 210 ------- 0 0.0 3.0 69 69
- 1.263767 2 3 cbr 210 ------- 0 0.0 3.0 69 69
+ 1.26625 0 2 cbr 210 ------- 0 0.0 3.0 71 71
- 1.26625 0 2 cbr 210 ------- 0 0.0 3.0 71 71
r 1.266298 2 3 cbr 210 ------- 0 0.0 3.0 67 67
r 1.267517 0 2 cbr 210 ------- 0 0.0 3.0 70 70
+ 1.267517 2 3 cbr 210 ------- 0 0.0 3.0 70 70
- 1.267517 2 3 cbr 210 ------- 0 0.0 3.0 70 70
+ 1.27 0 2 cbr 210 ------- 0 0.0 3.0 72 72
- 1.27 0 2 cbr 210 ------- 0 0.0 3.0 72 72
r 1.270048 2 3 cbr 210 ------- 0 0.0 3.0 68 68
r 1.271267 0 2 cbr 210 ------- 0 0.0 3.0 71 71
+ 1.271267 2 3 cbr 210 ------- 0 0.0 3.0 71 71
- 1.271267 2 3 cbr 210 ------- 0 0.0 3.0 71 71
+ 1.27375 0 2 cbr 210 ------- 0 0.0 3.0 73 73
- 1.27375 0 2 cbr 210 ------- 0 0.0 3.0 73 73
r 1.273798 2 3 cbr 210 ------- 0 0.0 3.0 69 69
r 1.275017 0 2 cbr 210 ------- 0 0.0 3.0 72 72
+ 1.275017 2 3 cbr 210 ------- 0 0.0 3.0 72 72
- 1.275017 2 3 cbr 210 ------- 0 0.0 3.0 72 72
+ 1.2775 0 2 cbr 210 ------- 0 0.0 3.0 74 74
- 1.2775 0 2 cbr 210 ------- 0 0.0 3.0 74 74
r 1.277548 2 3 cbr 210 ------- 0 0.0 3.0 70 70
r 1.278767 0 2 cbr 210 ------- 0 0.0 3.0 73 73
+ 1.278767 2 3 cbr 210 ------- 0 0.0 3.0 73 73
- 1.278767 2 3 cbr 210 ------- 0 0.0 3.0 73 73
+ 1.28125 0 2 cbr 210 ------- 0 0.0 3.0 75 75
- 1.28125 0 2 cbr 210 ------- 0 0.0 3.0 75 75
r 1.281298 2 3 cbr 210 ------- 0 0.0 3.0 71 71
r 1.282517 0 2 cbr 210 ------- 0 0.0 3.0 74 74
+ 1.282517 2 3 cbr 210 ------- 0 0.0 3.0 74 74
- 1.282517 2 3 cbr 210 ------- 0 0.0 3.0 74 74
+ 1.285 0 2 cbr 210 ------- 0 0.0 3.0 76 76
- 1.285 0 2 cbr 210 ------- 0 0.0 3.0 76 76
r 1.285048 2 3 cbr 210 ------- 0 0.0 3.0 72 72
r 1.286267 0 2 cbr 210 ------- 0 0.0 3.0 75 75
+ 1.286267 2 3 cbr 210 ------- 0 0.0 3.0 75 75
- 1.286267 2 3 cbr 210 ------- 0 0.0 3.0 75 75
+ 1.28875 0 2 cbr 210 ------- 0 0.0 3.0 77 77
- 1.28875 0 2 cbr 210 ------- 0 0.0 3.0 77 77
r 1.288798 2 3 cbr 210 ------- 0 0.0 3.0 73 73
r 1.290017 0 2 cbr 210 ------- 0 0.0 3.0 76 76
+ 1.290017 2 3 cbr 210 ------- 0 0.0 3.0 76 76
- 1.290017 2 3 cbr 210 ------- 0 0.0 3.0 76 76
+ 1.2925 0 2 cbr 210 ------- 0 0.0 3.0 78 78
- 1.2925 0 2 cbr 210 ------- 0 0.0 3.0 78 78
r 1.292548 2 3 cbr 210 ------- 0 0.0 3.0 74 74
r 1.293767 0 2 cbr 210 ------- 0 0.0 3.0 77 77
+ 1.293767 2 3 cbr 210 ------- 0 0.0 3.0 77 77
- 1.293767 2 3 cbr 210 ------- 0 0.0 3.0 77 77
+ 1.29625 0 2 cbr 210 ------- 0 0.0 3.0 79 79
- 1.29625 0 2 cbr 210 ------- 0 0.0 3.0 79 79
r 1.296298 2 3 cbr 210 ------- 0 0.0 3.0 75 75
r 1.297517 0 2 cbr 210 ------- 0 0.0 3.0 78 78
+ 1.297517 2 3 cbr 210 ------- 0 0.0 3.0 78 78
- 1.297517 2 3 cbr 210 ------- 0 0.0 3.0 78 78
+ 1.3 0 2 cbr 210 ------- 0 0.0 3.0 80 80
- 1.3 0 2 cbr 210 ------- 0 0.0 3.0 80 80
r 1.300048 2 3 cbr 210 ------- 0 0.0 3.0 76 76
r 1.301267 0 2 cbr 210 ------- 0 0.0 3.0 79 79
+ 1.301267 2 3 cbr 210 ------- 0 0.0 3.0 79 79
- 1.301267 2 3 cbr 210 ------- 0 0.0 3.0 79 79
+ 1.30375 0 2 cbr 210 ------- 0 0.0 3.0 81 81
- 1.30375 0 2 cbr 210 ------- 0 0.0 3.0 81 81
r 1.303798 2 3 cbr 210 ------- 0 0.0 3.0 77 77
r 1.305017 0 2 cbr 210 ------- 0 0.0 3.0 80 80
+ 1.305017 2 3 cbr 210 ------- 0 0.0 3.0 80 80
- 1.305017 2 3 cbr 210 ------- 0 0.0 3.0 80 80
+ 1.3075 0 2 cbr 210 ------- 0 0.0 3.0 82 82
- 1.3075 0 2 cbr 210 ------- 0 0.0 3.0 82 82
r 1.307548 2 3 cbr 210 ------- 0 0.0 3.0 78 78
r 1.308767 0 2 cbr 210 ------- 0 0.0 3.0 81 81
+ 1.308767 2 3 cbr 210 ------- 0 0.0 3.0 81 81
- 1.308767 2 3 cbr 210 ------- 0 0.0 3.0 81 81
+ 1.31125 0 2 cbr 210 ------- 0 0.0 3.0 83 83
- 1.31125 0 2 cbr 210 ------- 0 0.0 3.0 83 83
r 1.311298 2 3 cbr 210 ------- 0 0.0 3.0 79 79
r 1.312517 0 2 cbr 210 ------- 0 0.0 3.0 82 82
+ 1.312517 2 3 cbr 210 ------- 0 0.0 3.0 82 82
- 1.312517 2 3 cbr 210 ------- 0 0.0 3.0 82 82
+ 1.315 0 2 cbr 210 ------- 0 0.0 3.0 84 84
- 1.315 0 2 cbr 210 ------- 0 0.0 3.0 84 84
r 1.315048 2 3 cbr 210 ------- 0 0.0 3.0 80 80
r 1.316267 0 2 cbr 210 ------- 0 0.0 3.0 83 83
+ 1.316267 2 3 cbr 210 ------- 0 0.0 3.0 83 83
- 1.316267 2 3 cbr 210 ------- 0 0.0 3.0 83 83
+ 1.31875 0 2 cbr 210 ------- 0 0.0 3.0 85 85
- 1.31875 0 2 cbr 210 ------- 0 0.0 3.0 85 85
r 1.318798 2 3 cbr 210 ------- 0 0.0 3.0 81 81
r 1.320017 0 2 cbr 210 ------- 0 0.0 3.0 84 84
+ 1.320017 2 3 cbr 210 ------- 0 0.0 3.0 84 84
- 1.320017 2 3 cbr 210 ------- 0 0.0 3.0 84 84
+ 1.3225 0 2 cbr 210 ------- 0 0.0 3.0 86 86
- 1.3225 0 2 cbr 210 ------- 0 0.0 3.0 86 86
r 1.322548 2 3 cbr 210 ------- 0 0.0 3.0 82 82
r 1.323767 0 2 cbr 210 ------- 0 0.0 3.0 85 85
+ 1.323767 2 3 cbr 210 ------- 0 0.0 3.0 85 85
- 1.323767 2 3 cbr 210 ------- 0 0.0 3.0 85 85
+ 1.32625 0 2 cbr 210 ------- 0 0.0 3.0 87 87
- 1.32625 0 2 cbr 210 ------- 0 0.0 3.0 87 87
r 1.326298 2 3 cbr 210 ------- 0 0.0 3.0 83 83
r 1.327517 0 2 cbr 210 ------- 0 0.0 3.0 86 86
+ 1.327517 2 3 cbr 210 ------- 0 0.0 3.0 86 86
- 1.327517 2 3 cbr 210 ------- 0 0.0 3.0 86 86
+ 1.33 0 2 cbr 210 ------- 0 0.0 3.0 88 88
- 1.33 0 2 cbr 210 ------- 0 0.0 3.0 88 88
r 1.330048 2 3 cbr 210 ------- 0 0.0 3.0 84 84
r 1.331267 0 2 cbr 210 ------- 0 0.0 3.0 87 87
+ 1.331267 2 3 cbr 210 ------- 0 0.0 3.0 87 87
- 1.331267 2 3 cbr 210 ------- 0 0.0 3.0 87 87
+ 1.33375 0 2 cbr 210 ------- 0 0.0 3.0 89 89
- 1.33375 0 2 cbr 210 ------- 0 0.0 3.0 89 89
r 1.333798 2 3 cbr 210 ------- 0 0.0 3.0 85 85
r 1.335017 0 2 cbr 210 ------- 0 0.0 3.0 88 88
+ 1.335017 2 3 cbr 210 ------- 0 0.0 3.0 88 88
- 1.335017 2 3 cbr 210 ------- 0 0.0 3.0 88 88
+ 1.3375 0 2 cbr 210 ------- 0 0.0 3.0 90 90
- 1.3375 0 2 cbr 210 ------- 0 0.0 3.0 90 90
r 1.337548 2 3 cbr 210 ------- 0 0.0 3.0 86 86
r 1.338767 0 2 cbr 210 ------- 0 0.0 3.0 89 89
+ 1.338767 2 3 cbr 210 ------- 0 0.0 3.0 89 89
- 1.338767 2 3 cbr 210 ------- 0 0.0 3.0 89 89
+ 1.34125 0 2 cbr 210 ------- 0 0.0 3.0 91 91
- 1.34125 0 2 cbr 210 ------- 0 0.0 3.0 91 91
r 1.341298 2 3 cbr 210 ------- 0 0.0 3.0 87 87
r 1.342517 0 2 cbr 210 ------- 0 0.0 3.0 90 90
+ 1.342517 2 3 cbr 210 ------- 0 0.0 3.0 90 90
- 1.342517 2 3 cbr 210 ------- 0 0.0 3.0 90 90
+ 1.345 0 2 cbr 210 ------- 0 0.0 3.0 92 92
- 1.345 0 2 cbr 210 ------- 0 0.0 3.0 92 92
r 1.345048 2 3 cbr 210 ------- 0 0.0 3.0 88 88
r 1.346267 0 2 cbr 210 ------- 0 0.0 3.0 91 91
+ 1.346267 2 3 cbr 210 ------- 0 0.0 3.0 91 91
- 1.346267 2 3 cbr 210 ------- 0 0.0 3.0 91 91
+ 1.34875 0 2 cbr 210 ------- 0 0.0 3.0 93 93
- 1.34875 0 2 cbr 210 ------- 0 0.0 3.0 93 93
r 1.348798 2 3 cbr 210 ------- 0 0.0 3.0 89 89
r 1.350017 0 2 cbr 210 ------- 0 0.0 3.0 92 92
+ 1.350017 2 3 cbr 210 ------- 0 0.0 3.0 92 92
- 1.350017 2 3 cbr 210 ------- 0 0.0 3.0 92 92
+ 1.3525 0 2 cbr 210 ------- 0 0.0 3.0 94 94
- 1.3525 0 2 cbr 210 ------- 0 0.0 3.0 94 94
r 1.352548 2 3 cbr 210 ------- 0 0.0 3.0 90 90
r 1.353767 0 2 cbr 210 ------- 0 0.0 3.0 93 93
+ 1.353767 2 3 cbr 210 ------- 0 0.0 3.0 93 93
- 1.353767 2 3 cbr 210 ------- 0 0.0 3.0 93 93
+ 1.35625 0 2 cbr 210 ------- 0 0.0 3.0 95 95
- 1.35625 0 2 cbr 210 ------- 0 0.0 3.0 95 95
r 1.356298 2 3 cbr 210 ------- 0 0.0 3.0 91 91
r 1.357517 0 2 cbr 210 ------- 0 0.0 3.0 94 94
+ 1.357517 2 3 cbr 210 ------- 0 0.0 3.0 94 94
- 1.357517 2 3 cbr 210 ------- 0 0.0 3.0 94 94
+ 1.36 0 2 cbr 210 ------- 0 0.0 3.0 96 96
- 1.36 0 2 cbr 210 ------- 0 0.0 3.0 96 96
r 1.360048 2 3 cbr 210 ------- 0 0.0 3.0 92 92
r 1.361267 0 2 cbr 210 ------- 0 0.0 3.0 95 95
+ 1.361267 2 3 cbr 210 ------- 0 0.0 3.0 95 95
- 1.361267 2 3 cbr 210 ------- 0 0.0 3.0 95 95
+ 1.36375 0 2 cbr 210 ------- 0 0.0 3.0 97 97
- 1.36375 0 2 cbr 210 ------- 0 0.0 3.0 97 97
r 1.363798 2 3 cbr 210 ------- 0 0.0 3.0 93 93
r 1.365017 0 2 cbr 210 ------- 0 0.0 3.0 96 96
+ 1.365017 2 3 cbr 210 ------- 0 0.0 3.0 96 96
- 1.365017 2 3 cbr 210 ------- 0 0.0 3.0 96 96
+ 1.3675 0 2 cbr 210 ------- 0 0.0 3.0 98 98
- 1.3675 0 2 cbr 210 ------- 0 0.0 3.0 98 98
r 1.367548 2 3 cbr 210 ------- 0 0.0 3.0 94 94
r 1.368767 0 2 cbr 210 ------- 0 0.0 3.0 97 97
+ 1.368767 2 3 cbr 210 ------- 0 0.0 3.0 97 97
- 1.368767 2 3 cbr 210 ------- 0 0.0 3.0 97 97
+ 1.37125 0 2 cbr 210 ------- 0 0.0 3.0 99 99
- 1.37125 0 2 cbr 210 ------- 0 0.0 3.0 99 99
r 1.371298 2 3 cbr 210 ------- 0 0.0 3.0 95 95
r 1.372517 0 2 cbr 210 ------- 0 0.0 3.0 98 98
+ 1.372517 2 3 cbr 210 ------- 0 0.0 3.0 98 98
- 1.372517 2 3 cbr 210 ------- 0 0.0 3.0 98 98
+ 1.375 0 2 cbr 210 ------- 0 0.0 3.0 100 100
- 1.375 0 2 cbr 210 ------- 0 0.0 3.0 100 100
r 1.375048 2 3 cbr 210 ------- 0 0.0 3.0 96 96
r 1.376267 0 2 cbr 210 ------- 0 0.0 3.0 99 99
+ 1.376267 2 3 cbr 210 ------- 0 0.0 3.0 99 99
- 1.376267 2 3 cbr 210 ------- 0 0.0 3.0 99 99
+ 1.37875 0 2 cbr 210 ------- 0 0.0 3.0 101 101
- 1.37875 0 2 cbr 210 ------- 0 0.0 3.0 101 101
r 1.378798 2 3 cbr 210 ------- 0 0.0 3.0 97 97
r 1.380017 0 2 cbr 210 ------- 0 0.0 3.0 100 100
+ 1.380017 2 3 cbr 210 ------- 0 0.0 3.0 100 100
- 1.380017 2 3 cbr 210 ------- 0 0.0 3.0 100 100
+ 1.3825 0 2 cbr 210 ------- 0 0.0 3.0 102 102
- 1.3825 0 2 cbr 210 ------- 0 0.0 3.0 102 102
r 1.382548 2 3 cbr 210 ------- 0 0.0 3.0 98 98
r 1.383767 0 2 cbr 210 ------- 0 0.0 3.0 101 101
+ 1.383767 2 3 cbr 210 ------- 0 0.0 3.0 101 101
- 1.383767 2 3 cbr 210 ------- 0 0.0 3.0 101 101
+ 1.38625 0 2 cbr 210 ------- 0 0.0 3.0 103 103
- 1.38625 0 2 cbr 210 ------- 0 0.0 3.0 103 103
r 1.386298 2 3 cbr 210 ------- 0 0.0 3.0 99 99
r 1.387517 0 2 cbr 210 ------- 0 0.0 3.0 102 102
+ 1.387517 2 3 cbr 210 ------- 0 0.0 3.0 102 102
- 1.387517 2 3 cbr 210 ------- 0 0.0 3.0 102 102
+ 1.39 0 2 cbr 210 ------- 0 0.0 3.0 104 104
- 1.39 0 2 cbr 210 ------- 0 0.0 3.0 104 104
r 1.390048 2 3 cbr 210 ------- 0 0.0 3.0 100 100
r 1.391267 0 2 cbr 210 ------- 0 0.0 3.0 103 103
+ 1.391267 2 3 cbr 210 ------- 0 0.0 3.0 103 103
- 1.391267 2 3 cbr 210 ------- 0 0.0 3.0 103 103
+ 1.39375 0 2 cbr 210 ------- 0 0.0 3.0 105 105
- 1.39375 0 2 cbr 210 ------- 0 0.0 3.0 105 105
r 1.393798 2 3 cbr 210 ------- 0 0.0 3.0 101 101
r 1.395017 0 2 cbr 210 ------- 0 0.0 3.0 104 104
+ 1.395017 2 3 cbr 210 ------- 0 0.0 3.0 104 104
- 1.395017 2 3 cbr 210 ------- 0 0.0 3.0 104 104
+ 1.3975 0 2 cbr 210 ------- 0 0.0 3.0 106 106
- 1.3975 0 2 cbr 210 ------- 0 0.0 3.0 106 106
r 1.397548 2 3 cbr 210 ------- 0 0.0 3.0 102 102
r 1.398767 0 2 cbr 210 ------- 0 0.0 3.0 105 105
+ 1.398767 2 3 cbr 210 ------- 0 0.0 3.0 105 105
- 1.398767 2 3 cbr 210 ------- 0 0.0 3.0 105 105
+ 1.40125 0 2 cbr 210 ------- 0 0.0 3.0 107 107
- 1.40125 0 2 cbr 210 ------- 0 0.0 3.0 107 107
r 1.401298 2 3 cbr 210 ------- 0 0.0 3.0 103 103
r 1.402517 0 2 cbr 210 ------- 0 0.0 3.0 106 106
+ 1.402517 2 3 cbr 210 ------- 0 0.0 3.0 106 106
- 1.402517 2 3 cbr 210 ------- 0 0.0 3.0 106 106
+ 1.405 0 2 cbr 210 ------- 0 0.0 3.0 108 108
- 1.405 0 2 cbr 210 ------- 0 0.0 3.0 108 108
r 1.405048 2 3 cbr 210 ------- 0 0.0 3.0 104 104
r 1.406267 0 2 cbr 210 ------- 0 0.0 3.0 107 107
+ 1.406267 2 3 cbr 210 ------- 0 0.0 3.0 107 107
- 1.406267 2 3 cbr 210 ------- 0 0.0 3.0 107 107